 Gaussian 09, Revision D.01,
 Gaussian 09:  ES64L-G09RevD.01 24-Apr-2013

 --------------------------------
 # b3lyp/6-31g(2df,p) NoSymm Freq
 --------------------------------

 ---------
 55981A1af
 ---------
 Symbolic Z-matrix:
 Charge =  0 Multiplicity = 1

                          Input orientation:
 ---------------------------------------------------------------------
 Center     Atomic      Atomic             Coordinates (Angstroms)
 Number     Number       Type             X           Y           Z
 ---------------------------------------------------------------------
      1          7           0        2.552582   -0.767620    0.067849
      2          6           0        1.199765   -0.284125    0.344814
      3          6           0        1.066217    1.181606   -0.073024
      4          6           0       -0.341598    1.691259    0.223289
      5          8           0       -1.360480    0.889058   -0.380101
      6          6           0       -1.287210   -0.455700   -0.107166
      7          6           0       -2.385881   -1.112129    0.258405
      8          6           0        0.065484   -1.084179   -0.333820
      9          1           0        2.712546   -0.771035   -0.937411
     10          1           0        2.641538   -1.735745    0.365806
     11          1           0        1.056866   -0.344136    1.432800
     12          1           0        1.804471    1.795771    0.452314
     13          1           0        1.267530    1.273301   -1.149164
     14          1           0       -0.508145    1.723455    1.311028
     15          1           0       -0.493402    2.699016   -0.171183
     16          1           0       -2.367442   -2.185364    0.398743
     17          1           0       -3.326917   -0.592312    0.388928
     18          1           0        0.270342   -1.100910   -1.415069
     19          1           0        0.057726   -2.121552    0.014083
 ---------------------------------------------------------------------

 SCF Done:  E(RB3LYP) =  -365.234652874     A.U. after   14 cycles

 Alpha  occ. eigenvalues --  -19.15061 -14.31170 -10.23294 -10.22971 -10.21599
 Alpha  occ. eigenvalues --  -10.18516 -10.18350 -10.15873  -1.04698  -0.88983
 Alpha  occ. eigenvalues --   -0.78268  -0.77450  -0.69050  -0.64625  -0.59185
 Alpha  occ. eigenvalues --   -0.54038  -0.49016  -0.48392  -0.47416  -0.45114
 Alpha  occ. eigenvalues --   -0.43298  -0.42077  -0.40145  -0.38725  -0.38387
 Alpha  occ. eigenvalues --   -0.35021  -0.33785  -0.32057  -0.28397  -0.24115
 Alpha  occ. eigenvalues --   -0.22405
 Alpha virt. eigenvalues --    0.03097   0.08134   0.09800   0.11272   0.12467
 Alpha virt. eigenvalues --    0.14213   0.15685   0.15983   0.16346   0.17421
 Alpha virt. eigenvalues --    0.17757   0.18609   0.20241   0.23346   0.24858

 Mulliken charges:
               1
     1  N   -0.519330
     2  C    0.029189
     3  C   -0.193221
     4  C   -0.086150
     5  O   -0.272984
     6  C    0.418079
     7  C   -0.434324
     8  C   -0.296698
     9  H    0.220277
    10  H    0.224019
    11  H    0.084494
    12  H    0.109663
    13  H    0.096781
    14  H    0.098386
    15  H    0.112459
    16  H    0.102443
    17  H    0.107092
    18  H    0.102664
    19  H    0.097162
 Sum of Mulliken charges =   0.00000

 Dipole moment (field-independent basis, Debye):
    X=              1.0005    Y=             -0.6399    Z=             -0.0760  Tot=              1.1900
 Quadrupole moment (field-independent basis, Debye-Ang):
   XX=            -54.9511   YY=            -44.2695   ZZ=            -48.7742
   XY=             -1.1713   XZ=             -3.3875   YZ=              0.5892

  Exact polarizability:  88.730   6.483  78.544  -5.612  -1.701  56.773
 Approx polarizability: 118.144  10.980 109.522  -8.647  -5.750  90.923

                      1                      2                      3
                      A                      A                      A
 Frequencies --    114.8676               144.1751               247.0402
 Red. masses --      2.9716                 3.2525                 1.4399
 Frc consts  --      0.0231                 0.0398                 0.0518
 IR Inten    --      0.3098                 3.6125                22.9516

                      4                      5                      6
                      A                      A                      A
 Frequencies --    261.4202               317.8056               391.1130
 Red. masses --      1.4521                 2.3701                 3.0000
 Frc consts  --      0.0585                 0.1410                 0.2704
 IR Inten    --     14.9604                11.9736                 2.1132

                      7                      8                      9
                      A                      A                      A
 Frequencies --    416.5440               462.8639               472.0099
 Red. masses --      3.7905                 2.4467                 2.0213
 Frc consts  --      0.3875                 0.3088                 0.2653
 IR Inten    --      0.7562                 1.9571                 1.7692

                     10                     11                     12
                      A                      A                      A
 Frequencies --    548.5966               646.9822               759.7445
 Red. masses --      2.9355                 2.5954                 1.1729
 Frc consts  --      0.5205                 0.6401                 0.3989
 IR Inten    --      6.7440                 5.4844                 2.3492

                     13                     14                     15
                      A                      A                      A
 Frequencies --    816.8316               844.3009               872.6254
 Red. masses --      2.2447                 2.5760                 1.6195
 Frc consts  --      0.8824                 1.0819                 0.7266
 IR Inten    --      4.2614                 4.8776                31.4163

                     16                     17                     18
                      A                      A                      A
 Frequencies --    877.6965               892.7698               930.0113
 Red. masses --      1.5044                 1.7387                 1.8724
 Frc consts  --      0.6828                 0.8165                 0.9542
 IR Inten    --    152.1804                20.0107                12.3881

                     19                     20                     21
                      A                      A                      A
 Frequencies --    974.1097               980.9149              1050.6637
 Red. masses --      1.7827                 1.9720                 1.3536
 Frc consts  --      0.9967                 1.1179                 0.8804
 IR Inten    --      6.7170                15.6664                 1.6764

                     22                     23                     24
                      A                      A                      A
 Frequencies --   1083.2312              1120.7507              1131.9254
 Red. masses --      3.0987                 3.2712                 2.5988
 Frc consts  --      2.1423                 2.4209                 1.9618
 IR Inten    --     17.4362               116.6544                 2.2065

                     25                     26                     27
                      A                      A                      A
 Frequencies --   1167.2566              1207.6546              1271.8385
 Red. masses --      1.3640                 1.4801                 1.7840
 Frc consts  --      1.0950                 1.2718                 1.7002
 IR Inten    --      7.5653                 8.8843                40.3583

                     28                     29                     30
                      A                      A                      A
 Frequencies --   1277.5944              1292.2331              1316.5184
 Red. masses --      1.5244                 1.2926                 1.4826
 Frc consts  --      1.4661                 1.2717                 1.5140
 IR Inten    --     38.1123                 2.0807                59.4343

                     31                     32                     33
                      A                      A                      A
 Frequencies --   1358.4835              1367.8130              1412.7069
 Red. masses --      1.3907                 1.2927                 1.4128
 Frc consts  --      1.5121                 1.4250                 1.6613
 IR Inten    --     11.5324                 1.4761                18.3644

                     34                     35                     36
                      A                      A                      A
 Frequencies --   1420.5671              1438.2816              1465.7344
 Red. masses --      1.2876                 1.3120                 1.0985
 Frc consts  --      1.5309                 1.5991                 1.3905
 IR Inten    --      6.1519                 0.4421                 2.1822

                     37                     38                     39
                      A                      A                      A
 Frequencies --   1483.0778              1506.8286              1658.7342
 Red. masses --      1.1009                 1.0959                 1.0925
 Frc consts  --      1.4267                 1.4661                 1.7710
 IR Inten    --      3.5914                 2.1305                23.5582

                     40                     41                     42
                      A                      A                      A
 Frequencies --   1726.2359              2988.7093              2993.6833
 Red. masses --      6.1297                 1.0710                 1.0690
 Frc consts  --     10.7619                 5.6366                 5.6447
 IR Inten    --     95.8696                48.3405                 4.4985

                     43                     44                     45
                      A                      A                      A
 Frequencies --   3010.2128              3025.4575              3082.5668
 Red. masses --      1.0777                 1.0680                 1.0940
 Frc consts  --      5.7536                 5.7597                 6.1250
 IR Inten    --     11.6211                56.8391                29.7067

                     46                     47                     48
                      A                      A                      A
 Frequencies --   3087.0887              3097.3536              3169.5057
 Red. masses --      1.0975                 1.0945                 1.0608
 Frc consts  --      6.1624                 6.1864                 6.2784
 IR Inten    --     27.8088                35.5158                 0.7969

                     49                     50                     51
                      A                      A                      A
 Frequencies --   3259.6944              3469.7061              3547.7751
 Red. masses --      1.1163                 1.0492                 1.0914
 Frc consts  --      6.9884                 7.4419                 8.0939
 IR Inten    --      6.5024                 0.5426                 0.1087

 - Thermochemistry -
 -------------------
 Temperature   298.150 Kelvin.  Pressure   1.00000 Atm.
 Atom     1 has atomic number  7 and mass  14.00307

 Molecular mass:   113.08406 amu.
 Principal axes and moments of inertia in atomic units:
                           1         2         3
     Eigenvalues --   534.326161052.256931476.67166
           X            0.99977   0.01594  -0.01452
           Y           -0.01581   0.99983   0.00938
           Z            0.01467  -0.00915   0.99985
 This molecule is an asymmetric top.
 Rotational symmetry number  1.
 Warning -- assumption of classical behavior for rotation
           may cause significant error
 Rotational temperatures (Kelvin)      0.16210     0.08231     0.05865
 Rotational constants (GHZ):           3.37760     1.71511     1.22217
 Zero-point vibrational energy     439402.2 (Joules/Mol)
                                  105.01964 (Kcal/Mol)
 Warning -- explicit consideration of  10 degrees of freedom as
           vibrations may cause significant error
 Vibrational temperatures:    165.27   207.44   355.44   376.12   457.25
          (Kelvin)            562.72   599.31   665.96   679.12   789.31
                              930.86  1093.10  1175.24  1214.76  1255.51
                             1262.81  1284.49  1338.08  1401.52  1411.32
                             1511.67  1558.53  1612.51  1628.59  1679.42
                             1737.54  1829.89  1838.17  1859.23  1894.17
                             1954.55  1967.98  2032.57  2043.88  2069.36
                             2108.86  2133.82  2167.99  2386.55  2483.67
                             4300.08  4307.24  4331.02  4352.95  4435.12
                             4441.63  4456.40  4560.21  4689.97  4992.13
                             5104.45

 Zero-point correction=                           0.167359 (Hartree/Particle)
 Thermal correction to Energy=                    0.175124
 Thermal correction to Enthalpy=                  0.176068
 Thermal correction to Gibbs Free Energy=         0.135563
 Sum of electronic and zero-point Energies=           -365.067293
 Sum of electronic and thermal Energies=              -365.059529
 Sum of electronic and thermal Enthalpies=            -365.058585
 Sum of electronic and thermal Free Energies=         -365.099090

                     E (Thermal)             CV                S
                      KCal/Mol        Cal/Mol-Kelvin    Cal/Mol-Kelvin
 Total                  109.892             30.395             85.251
 Electronic               0.000              0.000              0.000
 Translational            0.889              2.981             40.085
 Rotational               0.889              2.981             28.209
 Vibrational            108.115             24.434             16.957
 Vibration     1          0.608              1.937              3.185
 Vibration     2          0.616              1.909              2.748
 Vibration     3          0.661              1.768              1.752
 Vibration     4          0.669              1.743              1.652
 Vibration     5          0.704              1.640              1.321
 Vibration     6          0.759              1.489              0.996
 Vibration     7          0.780              1.434              0.904
 Vibration     8          0.820              1.332              0.758
 Vibration     9          0.829              1.312              0.732
 Vibration    10          0.904              1.143              0.547

 Normal termination of Gaussian 09 at Mon Dec  7 03:07:09 2020.
