 Gaussian 09, Revision D.01,
 Gaussian 09:  ES64L-G09RevD.01 24-Apr-2013

 --------------------------------
 # b3lyp/6-31g(2df,p) NoSymm Freq
 --------------------------------

 ---------
 58528A1af
 ---------
 Symbolic Z-matrix:
 Charge =  0 Multiplicity = 1

                          Input orientation:
 ---------------------------------------------------------------------
 Center     Atomic      Atomic             Coordinates (Angstroms)
 Number     Number       Type             X           Y           Z
 ---------------------------------------------------------------------
      1          6           0       -2.247082   -1.811368   -0.181442
      2          6           0       -2.257339   -0.354042    0.281495
      3          7           0       -1.126830    0.428269   -0.222368
      4          6           0       -1.408658    1.854705   -0.159859
      5          6           0        0.131882    0.091611    0.439537
      6          6           0        1.372853    0.462619   -0.392538
      7          6           0        2.650807    0.103907    0.310000
      8          6           0        3.563591   -0.750958   -0.141000
      9          1           0       -3.159397   -2.316133    0.152221
     10          1           0       -1.399676   -2.373939    0.221182
     11          1           0       -2.199295   -1.863087   -1.273013
     12          1           0       -3.170095    0.120586   -0.095610
     13          1           0       -2.323868   -0.310027    1.386931
     14          1           0       -0.589191    2.427905   -0.601156
     15          1           0       -1.558258    2.223299    0.874226
     16          1           0       -2.313423    2.079660   -0.732822
     17          1           0        0.157262   -0.987779    0.610018
     18          1           0        0.199905    0.565653    1.439816
     19          1           0        1.312682   -0.043274   -1.361725
     20          1           0        1.367904    1.541637   -0.595902
     21          1           0        2.813649    0.591535    1.271674
     22          1           0        3.445484   -1.261303   -1.093093
     23          1           0        4.467795   -0.971456    0.416672
 ---------------------------------------------------------------------

 SCF Done:  E(RB3LYP) =  -330.519954181     A.U. after   13 cycles

 Alpha  occ. eigenvalues --  -14.31403 -10.20142 -10.20056 -10.19545 -10.18279
 Alpha  occ. eigenvalues --  -10.17943 -10.17125 -10.17053  -0.91484  -0.79174
 Alpha  occ. eigenvalues --   -0.74568  -0.71799  -0.66265  -0.62268  -0.56483
 Alpha  occ. eigenvalues --   -0.54932  -0.48312  -0.46650  -0.45403  -0.44611
 Alpha  occ. eigenvalues --   -0.42219  -0.41283  -0.39230  -0.38181  -0.36431
 Alpha  occ. eigenvalues --   -0.35798  -0.34804  -0.34311  -0.33206  -0.32369
 Alpha  occ. eigenvalues --   -0.25279  -0.20818
 Alpha virt. eigenvalues --    0.02370   0.08818   0.10597   0.11834   0.12778
 Alpha virt. eigenvalues --    0.13783   0.14601   0.15353   0.15538   0.17055
 Alpha virt. eigenvalues --    0.17416   0.18117   0.19069   0.19818   0.20677

 Mulliken charges:
               1
     1  C   -0.387337
     2  C   -0.107295
     3  N   -0.057636
     4  C   -0.323285
     5  C   -0.126943
     6  C   -0.243025
     7  C    0.035167
     8  C   -0.319449
     9  H    0.111373
    10  H    0.120493
    11  H    0.122876
    12  H    0.095905
    13  H    0.073369
    14  H    0.117960
    15  H    0.087944
    16  H    0.116287
    17  H    0.104854
    18  H    0.071180
    19  H    0.106238
    20  H    0.104735
    21  H    0.084950
    22  H    0.102720
    23  H    0.108918
 Sum of Mulliken charges =   0.00000

 Dipole moment (field-independent basis, Debye):
    X=             -0.4429    Y=              0.2163    Z=              0.4366  Tot=              0.6585
 Quadrupole moment (field-independent basis, Debye-Ang):
   XX=            -51.5454   YY=            -51.4766   ZZ=            -52.7789
   XY=             -0.4813   XZ=              0.3508   YZ=              0.4083

  Exact polarizability: 104.127  -8.366  83.044  -0.489   4.308  71.655
 Approx polarizability: 127.552 -14.483 116.914  -1.919   7.821 109.996

                      1                      2                      3
                      A                      A                      A
 Frequencies --     44.1413                63.2181                96.2554
 Red. masses --      1.9299                 2.9835                 1.6786
 Frc consts  --      0.0022                 0.0070                 0.0092
 IR Inten    --      0.0024                 0.0072                 0.3211

                      4                      5                      6
                      A                      A                      A
 Frequencies --    104.1999               173.2189               214.4294
 Red. masses --      2.3996                 2.1283                 1.2433
 Frc consts  --      0.0154                 0.0376                 0.0337
 IR Inten    --      0.2683                 0.1330                 0.5041

                      7                      8                      9
                      A                      A                      A
 Frequencies --    245.3530               291.0447               341.4788
 Red. masses --      1.3331                 1.9227                 2.2873
 Frc consts  --      0.0473                 0.0960                 0.1571
 IR Inten    --      0.1067                 0.4454                 0.7520

                     10                     11                     12
                      A                      A                      A
 Frequencies --    359.4509               444.3213               463.2382
 Red. masses --      2.2611                 2.0808                 2.6187
 Frc consts  --      0.1721                 0.2420                 0.3311
 IR Inten    --      2.9711                 1.2333                 1.8418

                     13                     14                     15
                      A                      A                      A
 Frequencies --    476.6848               649.4334               786.1003
 Red. masses --      2.4848                 1.5205                 1.2771
 Frc consts  --      0.3327                 0.3778                 0.4650
 IR Inten    --      4.7821                 9.0734                 5.0822

                     16                     17                     18
                      A                      A                      A
 Frequencies --    806.6665               822.6588               943.4347
 Red. masses --      1.1710                 2.3471                 1.6185
 Frc consts  --      0.4489                 0.9359                 0.8487
 IR Inten    --      2.4080                 6.8396                 1.2455

                     19                     20                     21
                      A                      A                      A
 Frequencies --    947.6739               966.4680              1001.3029
 Red. masses --      1.3607                 2.4173                 1.7400
 Frc consts  --      0.7200                 1.3303                 1.0279
 IR Inten    --     32.8390                10.0594                 0.7599

                     22                     23                     24
                      A                      A                      A
 Frequencies --   1040.8396              1048.0676              1074.6549
 Red. masses --      1.7925                 1.5174                 2.3108
 Frc consts  --      1.1441                 0.9820                 1.5723
 IR Inten    --      1.0789                12.6391                42.0267

                     25                     26                     27
                      A                      A                      A
 Frequencies --   1086.0644              1112.1958              1132.2877
 Red. masses --      1.7233                 1.8784                 1.3922
 Frc consts  --      1.1976                 1.3690                 1.0516
 IR Inten    --      9.5620                18.5361                 1.0630

                     28                     29                     30
                      A                      A                      A
 Frequencies --   1184.2148              1203.6405              1249.6876
 Red. masses --      1.8164                 1.9092                 1.8444
 Frc consts  --      1.5008                 1.6297                 1.6971
 IR Inten    --      9.6611                 8.6528                25.9498

                     31                     32                     33
                      A                      A                      A
 Frequencies --   1275.3394              1301.2045              1328.5920
 Red. masses --      1.5129                 1.3321                 1.2483
 Frc consts  --      1.4498                 1.3288                 1.2983
 IR Inten    --      2.6391                11.5824                11.0903

                     34                     35                     36
                      A                      A                      A
 Frequencies --   1332.2275              1344.5127              1396.9946
 Red. masses --      1.3012                 1.2312                 1.2805
 Frc consts  --      1.3607                 1.3113                 1.4724
 IR Inten    --      7.7543                 3.2540                 6.0928

                     37                     38                     39
                      A                      A                      A
 Frequencies --   1409.8693              1415.0762              1455.7812
 Red. masses --      1.3482                 1.3334                 1.1635
 Frc consts  --      1.5790                 1.5731                 1.4528
 IR Inten    --     11.1926                22.4569                 0.8430

                     40                     41                     42
                      A                      A                      A
 Frequencies --   1462.8854              1481.1945              1488.8265
 Red. masses --      1.1709                 1.1089                 1.0630
 Frc consts  --      1.4763                 1.4334                 1.3883
 IR Inten    --      1.4924                 1.7294                 3.6380

                     43                     44                     45
                      A                      A                      A
 Frequencies --   1489.7011              1494.9965              1504.2213
 Red. masses --      1.0567                 1.0494                 1.0799
 Frc consts  --      1.3816                 1.3819                 1.4397
 IR Inten    --      4.1057                 1.7734                 8.9969

                     46                     47                     48
                      A                      A                      A
 Frequencies --   1506.1028              1516.5099              1718.0433
 Red. masses --      1.0516                 1.0916                 4.8494
 Frc consts  --      1.4054                 1.4792                 8.4334
 IR Inten    --      3.6815                 4.5437                 9.7687

                     49                     50                     51
                      A                      A                      A
 Frequencies --   2896.3682              2905.1733              2918.6435
 Red. masses --      1.0729                 1.0702                 1.0645
 Frc consts  --      5.3027                 5.3216                 5.3427
 IR Inten    --     30.2992                48.7458               153.4992

                     52                     53                     54
                      A                      A                      A
 Frequencies --   3022.7439              3040.8637              3051.6454
 Red. masses --      1.0631                 1.0355                 1.0863
 Frc consts  --      5.7230                 5.6413                 5.9601
 IR Inten    --     17.2897                17.0477                16.9705

                     55                     56                     57
                      A                      A                      A
 Frequencies --   3068.3422              3074.7195              3091.9717
 Red. masses --      1.0703                 1.0905                 1.0917
 Frc consts  --      5.9370                 6.0742                 6.1494
 IR Inten    --     43.6855                 4.2237                26.9867

                     58                     59                     60
                      A                      A                      A
 Frequencies --   3108.6416              3112.4796              3118.1737
 Red. masses --      1.0992                 1.1007                 1.1021
 Frc consts  --      6.2586                 6.2826                 6.3137
 IR Inten    --     30.6234                45.3592                31.1110

                     61                     62                     63
                      A                      A                      A
 Frequencies --   3124.6937              3142.0913              3222.3653
 Red. masses --      1.0814                 1.0684                 1.1143
 Frc consts  --      6.2210                 6.2145                 6.8171
 IR Inten    --     25.8539                 5.1343                17.6460

 - Thermochemistry -
 -------------------
 Temperature   298.150 Kelvin.  Pressure   1.00000 Atm.
 Atom     1 has atomic number  6 and mass  12.00000

 Molecular mass:   113.12045 amu.
 Principal axes and moments of inertia in atomic units:
                           1         2         3
     Eigenvalues --   542.098711885.992082278.68907
           X            1.00000   0.00101  -0.00160
           Y           -0.00099   0.99995   0.00981
           Z            0.00161  -0.00981   0.99995
 This molecule is an asymmetric top.
 Rotational symmetry number  1.
 Warning -- assumption of classical behavior for rotation
           may cause significant error
 Rotational temperatures (Kelvin)      0.15977     0.04592     0.03801
 Rotational constants (GHZ):           3.32917     0.95692     0.79201
 Zero-point vibrational energy     551439.1 (Joules/Mol)
                                  131.79711 (Kcal/Mol)
 Warning -- explicit consideration of  13 degrees of freedom as
           vibrations may cause significant error
 Vibrational temperatures:     63.51    90.96   138.49   149.92   249.22
          (Kelvin)            308.52   353.01   418.75   491.31   517.17
                              639.28   666.50   685.84   934.39  1131.02
                             1160.61  1183.62  1357.39  1363.49  1390.53
                             1440.65  1497.53  1507.93  1546.19  1562.60
                             1600.20  1629.11  1703.82  1731.77  1798.02
                             1834.93  1872.14  1911.55  1916.78  1934.45
                             2009.96  2028.48  2035.98  2094.54  2104.76
                             2131.11  2142.09  2143.34  2150.96  2164.24
                             2166.94  2181.92  2471.88  4167.22  4179.89
                             4199.27  4349.05  4375.12  4390.63  4414.65
                             4423.83  4448.65  4472.64  4478.16  4486.35
                             4495.73  4520.76  4636.26

 Zero-point correction=                           0.210032 (Hartree/Particle)
 Thermal correction to Energy=                    0.220407
 Thermal correction to Enthalpy=                  0.221352
 Thermal correction to Gibbs Free Energy=         0.173775
 Sum of electronic and zero-point Energies=           -330.309922
 Sum of electronic and thermal Energies=              -330.299547
 Sum of electronic and thermal Enthalpies=            -330.298603
 Sum of electronic and thermal Free Energies=         -330.346179

                     E (Thermal)             CV                S
                      KCal/Mol        Cal/Mol-Kelvin    Cal/Mol-Kelvin
 Total                  138.308             36.775            100.133
 Electronic               0.000              0.000              0.000
 Translational            0.889              2.981             40.086
 Rotational               0.889              2.981             29.234
 Vibrational            136.530             30.814             30.813
 Vibration     1          0.595              1.980              5.064
 Vibration     2          0.597              1.972              4.354
 Vibration     3          0.603              1.952              3.529
 Vibration     4          0.605              1.946              3.374
 Vibration     5          0.627              1.875              2.400
 Vibration     6          0.644              1.819              2.006
 Vibration     7          0.660              1.770              1.764
 Vibration     8          0.687              1.690              1.468
 Vibration     9          0.721              1.593              1.205
 Vibration    10          0.734              1.556              1.124
 Vibration    11          0.804              1.373              0.813
 Vibration    12          0.821              1.332              0.757
 Vibration    13          0.833              1.302              0.719

 Normal termination of Gaussian 09 at Mon Dec  7 03:43:56 2020.
