 Gaussian 09, Revision D.01,
 Gaussian 09:  ES64L-G09RevD.01 24-Apr-2013

 --------------------------------
 # b3lyp/6-31g(2df,p) NoSymm Freq
 --------------------------------

 ---------
 59967A1af
 ---------
 Symbolic Z-matrix:
 Charge =  0 Multiplicity = 1

                          Input orientation:
 ---------------------------------------------------------------------
 Center     Atomic      Atomic             Coordinates (Angstroms)
 Number     Number       Type             X           Y           Z
 ---------------------------------------------------------------------
      1          6           0        3.687384   -0.269032   -0.022248
      2          6           0        2.263178   -0.132912   -0.470171
      3          6           0        1.234997    0.175037    0.315006
      4          6           0       -0.191151    0.282488   -0.141854
      5          8           0       -0.701478    1.528824    0.306438
      6          6           0       -1.039726   -0.879707    0.413925
      7          6           0       -2.497600   -0.812326    0.031887
      8          8           0       -3.030669    0.139411   -0.491175
      9          1           0        3.793017   -0.074069    1.048684
     10          1           0        4.073257   -1.275788   -0.226033
     11          1           0        4.338746    0.428853   -0.562629
     12          1           0        2.078776   -0.302181   -1.531477
     13          1           0        1.391569    0.364249    1.376794
     14          1           0       -0.219907    0.222922   -1.241852
     15          1           0       -1.609905    1.572436   -0.021635
     16          1           0       -0.995668   -0.889841    1.513732
     17          1           0       -0.643384   -1.851960    0.091646
     18          1           0       -3.091826   -1.721799    0.271396
 ---------------------------------------------------------------------

 SCF Done:  E(RB3LYP) =  -385.101294662     A.U. after   14 cycles

 Alpha  occ. eigenvalues --  -19.15742 -19.12133 -10.28702 -10.23757 -10.20110
 Alpha  occ. eigenvalues --  -10.18742 -10.18294 -10.17814  -1.06347  -1.00721
 Alpha  occ. eigenvalues --   -0.80449  -0.77127  -0.70682  -0.63165  -0.57670
 Alpha  occ. eigenvalues --   -0.55481  -0.50162  -0.49224  -0.45613  -0.44364
 Alpha  occ. eigenvalues --   -0.43926  -0.42529  -0.41120  -0.39408  -0.37506
 Alpha  occ. eigenvalues --   -0.36792  -0.35142  -0.32612  -0.26934  -0.26404
 Alpha  occ. eigenvalues --   -0.24665
 Alpha virt. eigenvalues --   -0.03459   0.01886   0.10220   0.10490   0.11513
 Alpha virt. eigenvalues --    0.12539   0.14240   0.15281   0.16169   0.17082
 Alpha virt. eigenvalues --    0.18006   0.19075   0.20069   0.23864   0.24216

 Mulliken charges:
               1
     1  C   -0.427599
     2  C   -0.040931
     3  C   -0.020789
     4  C    0.075183
     5  O   -0.447071
     6  C   -0.306556
     7  C    0.155185
     8  O   -0.253485
     9  H    0.122041
    10  H    0.125012
    11  H    0.129687
    12  H    0.080607
    13  H    0.086888
    14  H    0.071470
    15  H    0.294450
    16  H    0.136977
    17  H    0.124815
    18  H    0.094115
 Sum of Mulliken charges =   0.00000

 Dipole moment (field-independent basis, Debye):
    X=              0.9284    Y=             -2.8514    Z=              0.2949  Tot=              3.0132
 Quadrupole moment (field-independent basis, Debye-Ang):
   XX=            -48.8488   YY=            -49.3771   ZZ=            -46.8912
   XY=              2.8473   XZ=             -2.7750   YZ=             -0.8303

  Exact polarizability:  98.728  -2.874  60.568  -3.462  -0.500  60.222
 Approx polarizability: 120.644 -11.083  93.687  -6.408  -0.337  96.615

                      1                      2                      3
                      A                      A                      A
 Frequencies --     70.3172                72.4340               139.0541
 Red. masses --      3.3097                 3.9771                 1.7304
 Frc consts  --      0.0096                 0.0123                 0.0197
 IR Inten    --      0.2158                 2.8832                 1.2474

                      4                      5                      6
                      A                      A                      A
 Frequencies --    152.7703               215.5162               222.6400
 Red. masses --      2.0261                 1.3296                 3.7273
 Frc consts  --      0.0279                 0.0364                 0.1089
 IR Inten    --      2.1070                 1.4100                 4.8037

                      7                      8                      9
                      A                      A                      A
 Frequencies --    240.6007               316.1571               422.7364
 Red. masses --      3.8554                 4.0612                 2.8403
 Frc consts  --      0.1315                 0.2392                 0.2991
 IR Inten    --      7.8405                 2.1416                 5.6718

                     10                     11                     12
                      A                      A                      A
 Frequencies --    482.7970               484.5146               565.9474
 Red. masses --      3.3402                 2.6094                 1.0687
 Frc consts  --      0.4587                 0.3609                 0.2017
 IR Inten    --     11.0673                 6.2058               106.7920

                     13                     14                     15
                      A                      A                      A
 Frequencies --    661.0049               797.9491               804.3290
 Red. masses --      1.9956                 2.2360                 1.8063
 Frc consts  --      0.5137                 0.8388                 0.6885
 IR Inten    --      7.5719                 4.3633                 2.7426

                     16                     17                     18
                      A                      A                      A
 Frequencies --    882.7728               934.9356               959.7250
 Red. masses --      2.6384                 1.5943                 1.9980
 Frc consts  --      1.2114                 0.8211                 1.0843
 IR Inten    --      3.1112                17.3943                31.2900

                     19                     20                     21
                      A                      A                      A
 Frequencies --   1013.8641              1061.0116              1069.8124
 Red. masses --      1.0970                 1.9144                 2.1930
 Frc consts  --      0.6644                 1.2698                 1.4788
 IR Inten    --     19.0293                 2.9355                 0.6012

                     22                     23                     24
                      A                      A                      A
 Frequencies --   1072.1082              1105.1124              1138.9988
 Red. masses --      1.9773                 4.1164                 2.1822
 Frc consts  --      1.3391                 2.9620                 1.6680
 IR Inten    --      2.3769                80.3604                 6.0685

                     25                     26                     27
                      A                      A                      A
 Frequencies --   1223.5774              1257.1072              1318.8032
 Red. masses --      1.3537                 1.1550                 1.5282
 Frc consts  --      1.1941                 1.0754                 1.5660
 IR Inten    --      2.9068                13.0972                47.5555

                     28                     29                     30
                      A                      A                      A
 Frequencies --   1322.3121              1342.3989              1367.2502
 Red. masses --      1.2596                 1.2601                 1.2643
 Frc consts  --      1.2976                 1.3379                 1.3926
 IR Inten    --      5.3323                24.3286                15.3414

                     31                     32                     33
                      A                      A                      A
 Frequencies --   1412.7455              1414.9432              1430.7090
 Red. masses --      1.2310                 1.1514                 1.1711
 Frc consts  --      1.4476                 1.3582                 1.4124
 IR Inten    --      3.9255                 7.2823                19.4852

                     34                     35                     36
                      A                      A                      A
 Frequencies --   1452.4345              1480.3169              1492.0879
 Red. masses --      1.5362                 1.0447                 1.0629
 Frc consts  --      1.9093                 1.3488                 1.3942
 IR Inten    --     54.1049                 5.6905                 9.4993

                     37                     38                     39
                      A                      A                      A
 Frequencies --   1751.3499              1807.1040              2890.4337
 Red. masses --      6.2934                 9.6720                 1.0837
 Frc consts  --     11.3732                18.6095                 5.3346
 IR Inten    --      9.2633               146.7276               138.0865

                     40                     41                     42
                      A                      A                      A
 Frequencies --   2971.6030              3012.2605              3020.6855
 Red. masses --      1.0826                 1.0636                 1.0374
 Frc consts  --      5.6323                 5.6859                 5.5771
 IR Inten    --     33.9732                14.8871                30.3545

                     43                     44                     45
                      A                      A                      A
 Frequencies --   3053.3498              3068.2719              3106.6747
 Red. masses --      1.0959                 1.0986                 1.0965
 Frc consts  --      6.0197                 6.0935                 6.2352
 IR Inten    --     11.3263                19.7453                 5.3263

                     46                     47                     48
                      A                      A                      A
 Frequencies --   3127.8897              3136.8253              3751.7251
 Red. masses --      1.0926                 1.0869                 1.0651
 Frc consts  --      6.2983                 6.3014                 8.8325
 IR Inten    --     17.4338                29.2587                87.4308

 - Thermochemistry -
 -------------------
 Temperature   298.150 Kelvin.  Pressure   1.00000 Atm.
 Atom     1 has atomic number  6 and mass  12.00000

 Molecular mass:   114.06808 amu.
 Principal axes and moments of inertia in atomic units:
                           1         2         3
     Eigenvalues --   322.259742059.261632230.37603
           X            0.99999   0.00147  -0.00503
           Y           -0.00161   0.99959  -0.02869
           Z            0.00498   0.02870   0.99958
 This molecule is an asymmetric top.
 Rotational symmetry number  1.
 Rotational temperatures (Kelvin)      0.26877     0.04206     0.03883
 Rotational constants (GHZ):           5.60027     0.87640     0.80916
 Zero-point vibrational energy     395365.6 (Joules/Mol)
                                   94.49465 (Kcal/Mol)
 Warning -- explicit consideration of  12 degrees of freedom as
           vibrations may cause significant error
 Vibrational temperatures:    101.17   104.22   200.07   219.80   310.08
          (Kelvin)            320.33   346.17   454.88   608.22   694.64
                              697.11   814.27   951.04  1148.07  1157.25
                             1270.11  1345.16  1380.83  1458.72  1526.56
                             1539.22  1542.52  1590.01  1638.76  1760.45
                             1808.69  1897.46  1902.51  1931.41  1967.17
                             2032.62  2035.79  2058.47  2089.73  2129.84
                             2146.78  2519.80  2600.02  4158.68  4275.47
                             4333.97  4346.09  4393.08  4414.55  4469.81
                             4500.33  4513.19  5397.89

 Zero-point correction=                           0.150587 (Hartree/Particle)
 Thermal correction to Energy=                    0.159912
 Thermal correction to Enthalpy=                  0.160856
 Thermal correction to Gibbs Free Energy=         0.116069
 Sum of electronic and zero-point Energies=           -384.950708
 Sum of electronic and thermal Energies=              -384.941382
 Sum of electronic and thermal Enthalpies=            -384.940438
 Sum of electronic and thermal Free Energies=         -384.985225

                     E (Thermal)             CV                S
                      KCal/Mol        Cal/Mol-Kelvin    Cal/Mol-Kelvin
 Total                  100.346             32.755             94.262
 Electronic               0.000              0.000              0.000
 Translational            0.889              2.981             40.110
 Rotational               0.889              2.981             28.783
 Vibrational             98.569             26.793             25.368
 Vibration     1          0.598              1.968              4.144
 Vibration     2          0.599              1.967              4.086
 Vibration     3          0.615              1.914              2.817
 Vibration     4          0.619              1.900              2.637
 Vibration     5          0.645              1.817              1.996
 Vibration     6          0.648              1.807              1.938
 Vibration     7          0.658              1.778              1.798
 Vibration     8          0.703              1.643              1.330
 Vibration     9          0.785              1.421              0.883
 Vibration    10          0.839              1.288              0.703
 Vibration    11          0.841              1.284              0.698
 Vibration    12          0.922              1.105              0.512

 Normal termination of Gaussian 09 at Mon Dec  7 04:25:49 2020.
