 Gaussian 09, Revision D.01,
 Gaussian 09:  ES64L-G09RevD.01 24-Apr-2013

 --------------------------------
 # b3lyp/6-31g(2df,p) NoSymm Freq
 --------------------------------

 ---------
 59981A1af
 ---------
 Symbolic Z-matrix:
 Charge =  0 Multiplicity = 1

                          Input orientation:
 ---------------------------------------------------------------------
 Center     Atomic      Atomic             Coordinates (Angstroms)
 Number     Number       Type             X           Y           Z
 ---------------------------------------------------------------------
      1          6           0       -1.919143   -1.602603   -0.404592
      2          6           0       -1.620610   -0.445612    0.563751
      3          6           0       -0.855762    0.676829   -0.076356
      4          6           0       -1.274409    1.923620   -0.245042
      5          8           0        0.382978    0.321345   -0.637254
      6          6           0        1.402266   -0.025042    0.197972
      7          6           0        2.618182   -0.411619   -0.607585
      8          8           0        1.325087   -0.011376    1.396823
      9          1           0       -2.529998   -1.263429   -1.246901
     10          1           0       -0.997143   -2.027971   -0.810889
     11          1           0       -2.460145   -2.401689    0.110261
     12          1           0       -1.048348   -0.817389    1.419620
     13          1           0       -2.555654   -0.034748    0.956538
     14          1           0       -0.656347    2.663763   -0.737735
     15          1           0       -2.252445    2.226126    0.106720
     16          1           0        2.388305   -1.272320   -1.242261
     17          1           0        3.437094   -0.655673    0.067713
     18          1           0        2.907024    0.410144   -1.268501
 ---------------------------------------------------------------------

 SCF Done:  E(RB3LYP) =  -385.133235800     A.U. after   14 cycles

 Alpha  occ. eigenvalues --  -19.18638 -19.12842 -10.31260 -10.24374 -10.19720
 Alpha  occ. eigenvalues --  -10.18898 -10.17932 -10.17531  -1.10445  -1.02062
 Alpha  occ. eigenvalues --   -0.80763  -0.75480  -0.73078  -0.63592  -0.62251
 Alpha  occ. eigenvalues --   -0.50804  -0.48862  -0.48335  -0.47733  -0.44461
 Alpha  occ. eigenvalues --   -0.44166  -0.41887  -0.40737  -0.39250  -0.38243
 Alpha  occ. eigenvalues --   -0.37252  -0.35148  -0.34368  -0.30772  -0.27701
 Alpha  occ. eigenvalues --   -0.24987
 Alpha virt. eigenvalues --    0.00339   0.02848   0.08979   0.11364   0.12609
 Alpha virt. eigenvalues --    0.13370   0.15665   0.15969   0.16282   0.17893
 Alpha virt. eigenvalues --    0.18303   0.19813   0.20228   0.22255   0.23367

 Mulliken charges:
               1
     1  C   -0.375113
     2  C   -0.280467
     3  C    0.449176
     4  C   -0.408267
     5  O   -0.277020
     6  C    0.417551
     7  C   -0.480336
     8  O   -0.338624
     9  H    0.121679
    10  H    0.122115
    11  H    0.117381
    12  H    0.139350
    13  H    0.108519
    14  H    0.113963
    15  H    0.116182
    16  H    0.151539
    17  H    0.149732
    18  H    0.152639
 Sum of Mulliken charges =   0.00000

 Dipole moment (field-independent basis, Debye):
    X=             -0.1846    Y=             -0.4140    Z=             -1.5849  Tot=              1.6484
 Quadrupole moment (field-independent basis, Debye-Ang):
   XX=            -42.6800   YY=            -45.9556   ZZ=            -52.6240
   XY=             -0.7821   XZ=             -4.5120   YZ=             -0.3664

  Exact polarizability:  78.524  -6.685  75.637  -2.541  -3.120  58.891
 Approx polarizability:  97.935 -11.480 107.635  -1.057  -6.303  96.473

                      1                      2                      3
                      A                      A                      A
 Frequencies --     45.2311                59.8440                86.9830
 Red. masses --      2.6451                 1.5092                 2.2015
 Frc consts  --      0.0032                 0.0032                 0.0098
 IR Inten    --      1.4559                 0.6420                 1.1410

                      4                      5                      6
                      A                      A                      A
 Frequencies --    112.4196               178.7224               218.1164
 Red. masses --      2.4108                 2.4762                 1.3687
 Frc consts  --      0.0180                 0.0466                 0.0384
 IR Inten    --      0.8396                 4.7297                 1.1408

                      7                      8                      9
                      A                      A                      A
 Frequencies --    251.7235               343.8655               447.1038
 Red. masses --      3.2155                 2.4884                 2.4411
 Frc consts  --      0.1200                 0.1734                 0.2875
 IR Inten    --      0.9685                 0.5788                 7.0431

                     10                     11                     12
                      A                      A                      A
 Frequencies --    449.1641               580.4114               625.8310
 Red. masses --      3.2862                 3.1541                 3.6477
 Frc consts  --      0.3906                 0.6260                 0.8417
 IR Inten    --      2.6176                 5.7560                 8.7655

                     13                     14                     15
                      A                      A                      A
 Frequencies --    654.6577               729.1963               803.4016
 Red. masses --      2.4777                 1.5118                 1.2141
 Frc consts  --      0.6257                 0.4736                 0.4617
 IR Inten    --      7.1595                 1.8878                 1.5162

                     16                     17                     18
                      A                      A                      A
 Frequencies --    812.6668               883.4865               911.1044
 Red. masses --      2.1242                 2.0247                 1.4906
 Frc consts  --      0.8266                 0.9311                 0.7290
 IR Inten    --      3.4866                 2.4612                39.3199

                     19                     20                     21
                      A                      A                      A
 Frequencies --    974.2576              1003.1243              1035.4688
 Red. masses --      3.4249                 1.8959                 1.8431
 Frc consts  --      1.9153                 1.1240                 1.1643
 IR Inten    --      8.8472                 6.9805                70.8763

                     22                     23                     24
                      A                      A                      A
 Frequencies --   1062.9435              1074.2924              1103.9602
 Red. masses --      1.7995                 1.9795                 1.5999
 Frc consts  --      1.1979                 1.3460                 1.1488
 IR Inten    --      6.1946                23.3428                 2.7933

                     25                     26                     27
                      A                      A                      A
 Frequencies --   1222.2905              1261.1624              1298.3908
 Red. masses --      3.2133                 2.4567                 1.3913
 Frc consts  --      2.8284                 2.3022                 1.3819
 IR Inten    --    398.7072               107.4949                 4.3538

                     28                     29                     30
                      A                      A                      A
 Frequencies --   1349.5126              1394.5738              1407.6529
 Red. masses --      1.5061                 1.3332                 1.2243
 Frc consts  --      1.6160                 1.5277                 1.4293
 IR Inten    --     13.6830                46.4661                 1.4977

                     31                     32                     33
                      A                      A                      A
 Frequencies --   1430.3492              1468.6291              1475.2265
 Red. masses --      1.1697                 1.0488                 1.0466
 Frc consts  --      1.4099                 1.3328                 1.3420
 IR Inten    --      0.9829                12.0897                 6.3847

                     34                     35                     36
                      A                      A                      A
 Frequencies --   1483.5297              1495.8484              1507.6395
 Red. masses --      1.0707                 1.0396                 1.0697
 Frc consts  --      1.3883                 1.3706                 1.4325
 IR Inten    --      6.0441                 4.7871                 8.2931

                     37                     38                     39
                      A                      A                      A
 Frequencies --   1738.6597              1835.3921              3042.1630
 Red. masses --      6.1829                11.4770                 1.0348
 Frc consts  --     11.0121                22.7790                 5.6427
 IR Inten    --     60.6662               203.0461                23.8391

                     40                     41                     42
                      A                      A                      A
 Frequencies --   3054.8297              3058.1829              3091.9148
 Red. masses --      1.0592                 1.0364                 1.1019
 Frc consts  --      5.8238                 5.7108                 6.2067
 IR Inten    --     11.0915                 2.1342                 1.8190

                     43                     44                     45
                      A                      A                      A
 Frequencies --   3114.7863              3120.1783              3123.0862
 Red. masses --      1.1020                 1.1024                 1.0991
 Frc consts  --      6.2994                 6.3232                 6.3163
 IR Inten    --     25.8283                36.0612                 4.1202

                     46                     47                     48
                      A                      A                      A
 Frequencies --   3170.9169              3172.5192              3262.3062
 Red. masses --      1.1029                 1.0618                 1.1164
 Frc consts  --      6.5337                 6.2967                 7.0005
 IR Inten    --      6.6841                 0.3954                 5.0820

 - Thermochemistry -
 -------------------
 Temperature   298.150 Kelvin.  Pressure   1.00000 Atm.
 Atom     1 has atomic number  6 and mass  12.00000

 Molecular mass:   114.06808 amu.
 Principal axes and moments of inertia in atomic units:
                           1         2         3
     Eigenvalues --   611.380841253.994251452.12910
           X            0.99962   0.00792  -0.02655
           Y           -0.00741   0.99978   0.01942
           Z            0.02670  -0.01922   0.99946
 This molecule is an asymmetric top.
 Rotational symmetry number  1.
 Warning -- assumption of classical behavior for rotation
           may cause significant error
 Rotational temperatures (Kelvin)      0.14167     0.06907     0.05965
 Rotational constants (GHZ):           2.95191     1.43919     1.24282
 Zero-point vibrational energy     394933.4 (Joules/Mol)
                                   94.39136 (Kcal/Mol)
 Warning -- explicit consideration of  11 degrees of freedom as
           vibrations may cause significant error
 Vibrational temperatures:     65.08    86.10   125.15   161.75   257.14
          (Kelvin)            313.82   362.17   494.75   643.28   646.25
                              835.08   900.43   941.91  1049.15  1155.91
                             1169.24  1271.14  1310.87  1401.74  1443.27
                             1489.81  1529.34  1545.67  1588.35  1758.60
                             1814.53  1868.09  1941.65  2006.48  2025.30
                             2057.95  2113.03  2122.52  2134.47  2152.19
                             2169.15  2501.54  2640.72  4376.99  4395.21
                             4400.04  4448.57  4481.48  4489.24  4493.42
                             4562.24  4564.54  4693.73

 Zero-point correction=                           0.150422 (Hartree/Particle)
 Thermal correction to Energy=                    0.159998
 Thermal correction to Enthalpy=                  0.160942
 Thermal correction to Gibbs Free Energy=         0.114945
 Sum of electronic and zero-point Energies=           -384.982814
 Sum of electronic and thermal Energies=              -384.973238
 Sum of electronic and thermal Enthalpies=            -384.972294
 Sum of electronic and thermal Free Energies=         -385.018291

                     E (Thermal)             CV                S
                      KCal/Mol        Cal/Mol-Kelvin    Cal/Mol-Kelvin
 Total                  100.400             33.000             96.809
 Electronic               0.000              0.000              0.000
 Translational            0.889              2.981             40.110
 Rotational               0.889              2.981             28.500
 Vibrational             98.623             27.038             28.199
 Vibration     1          0.595              1.979              5.016
 Vibration     2          0.597              1.973              4.462
 Vibration     3          0.601              1.958              3.727
 Vibration     4          0.607              1.939              3.227
 Vibration     5          0.629              1.868              2.342
 Vibration     6          0.646              1.813              1.975
 Vibration     7          0.664              1.760              1.718
 Vibration     8          0.723              1.588              1.194
 Vibration     9          0.806              1.367              0.805
 Vibration    10          0.808              1.363              0.798
 Vibration    11          0.937              1.074              0.485

 Optimization completed.
    -- Stationary point found.
 Normal termination of Gaussian 09 at Mon Dec  7 04:27:36 2020.
